#LAMMPS input file
300 atoms
300 bonds
300 angles

1 atom types
1 bond types
1 angle types

-100 100 xlo xhi
-100 100 ylo yhi
-50 50 zlo zhi

Masses

1 1.0

Atoms

1	1	1	-1.86603	-0.5	0.0
2	1	1	-0.866025	-0.5	0.0
3	1	1	0.0	5.55112e-17	0.0
4	1	1	0.5	0.866025	0.0
5	1	1	0.5	1.86603	0.0
6	1	1	0.0158857	2.67487	0.365702
7	1	1	-0.75815	3.27464	0.683421
8	1	1	-1.23645	3.83165	1.3141
9	1	1	-1.58762	4.07754	2.22613
10	1	1	-2.63691	4.15378	2.33786
11	1	1	-3.60124	3.88015	2.55072
12	1	1	-4.47159	3.45254	2.78908
13	1	1	-5.42178	3.05927	2.90883
14	1	1	-6.33682	2.84966	3.1321
15	1	1	-7.34826	2.29812	3.30306
16	1	1	-8.04079	1.57267	3.39467
17	1	1	-8.72512	0.977547	3.16674
18	1	1	-9.32026	0.16842	2.93233
19	1	1	-10.02	-0.526496	2.97096
20	1	1	-10.3833	-1.40044	3.13406
21	1	1	-11.1234	-1.99709	3.21307
22	1	1	-12.0076	-2.18685	2.80601
23	1	1	-12.7369	-3.08473	2.79849
24	1	1	-13.1129	-3.97189	2.68606
25	1	1	-13.1227	-5.01032	2.666
26	1	1	-13.2239	-6.00776	2.58094
27	1	1	-13.6316	-6.86112	2.22828
28	1	1	-13.9727	-7.71909	2.01653
29	1	1	-14.1953	-8.67934	1.7013
30	1	1	-14.3784	-9.73069	1.67467
31	1	1	-14.3149	-10.7476	1.78454
32	1	1	-14.347	-11.6366	2.10899
33	1	1	-14.5389	-12.4678	2.49212
34	1	1	-14.3462	-13.4147	2.81134
35	1	1	-14.4715	-14.3664	2.94588
36	1	1	-14.6927	-15.3459	2.96648
37	1	1	-14.6331	-16.3748	3.11401
38	1	1	-15.0257	-17.269	3.24997
39	1	1	-15.1985	-18.1441	3.54758
40	1	1	-15.5847	-18.984	3.267
41	1	1	-15.6622	-19.9255	3.11156
42	1	1	-15.765	-20.9052	2.85808
43	1	1	-15.8057	-21.9142	2.41489
44	1	1	-15.8077	-22.9295	2.20789
45	1	1	-15.8737	-23.9053	1.93472
46	1	1	-15.8045	-24.9248	1.9661
47	1	1	-15.9619	-25.8904	2.06997
48	1	1	-16.0656	-26.9628	1.95378
49	1	1	-15.9777	-27.902	1.83636
50	1	1	-15.6863	-28.7896	1.99083
51	1	1	-15.2213	-29.5964	2.26392
52	1	1	-14.6621	-30.2233	2.79886
53	1	1	-14.2212	-30.6078	3.65046
54	1	1	-13.8261	-31.3225	4.29094
55	1	1	-13.466	-32.073	4.86253
56	1	1	-13.0489	-32.8463	5.18573
57	1	1	-12.3402	-33.4678	5.40129
58	1	1	-11.3632	-34.043	5.40711
59	1	1	-10.4185	-34.3222	5.42551
60	1	1	-9.4418	-34.4021	5.53507
61	1	1	-8.51538	-34.5942	5.4966
62	1	1	-7.58942	-34.4325	5.82989
63	1	1	-6.99113	-33.9397	6.47851
64	1	1	-6.75203	-33.2856	7.20354
65	1	1	-6.40266	-32.3899	7.60596
66	1	1	-5.92093	-31.6137	7.94136
67	1	1	-5.82816	-30.6237	8.10387
68	1	1	-5.63875	-29.6057	8.04744
69	1	1	-5.8339	-28.6178	8.1036
70	1	1	-6.15583	-27.6941	8.17661
71	1	1	-6.89255	-27.0077	7.85552
72	1	1	-7.44258	-26.3441	7.30478
73	1	1	-7.71133	-25.5873	6.81105
74	1	1	-7.90101	-24.9904	6.0417
75	1	1	-8.29136	-24.8736	5.16106
76	1	1	-8.69249	-24.7446	4.23085
77	1	1	-9.02251	-24.893	3.28225
78	1	1	-9.46728	-25.4681	2.66133
79	1	1	-9.89346	-26.2863	2.11701
80	1	1	-10.5945	-26.8355	1.58656
81	1	1	-11.2008	-27.4528	0.976617
82	1	1	-12.0271	-27.909	0.543321
83	1	1	-12.3382	-28.4427	-0.382033
84	1	1	-12.3131	-28.9861	-1.17876
85	1	1	-12.1205	-29.5649	-1.94904
86	1	1	-12.1158	-30.0502	-2.75809
87	1	1	-11.9838	-30.5611	-3.60109
88	1	1	-12.1367	-30.967	-4.49699
89	1	1	-12.6728	-31.5133	-5.0614
90	1	1	-13.3341	-31.986	-5.52972
91	1	1	-14.1954	-32.4885	-5.75247
92	1	1	-15.0662	-33.0358	-5.8391
93	1	1	-15.863	-33.0888	-6.3405
94	1	1	-16.6854	-33.4127	-6.97437
95	1	1	-17.5005	-33.7409	-7.4782
96	1	1	-18.4465	-33.9765	-7.56166
97	1	1	-19.2898	-34.2311	-7.98631
98	1	1	-20.2569	-34.5327	-7.90432
99	1	1	-21.1801	-34.8622	-7.87758
100	1	1	-22.2055	-35.0803	-7.881
101	1	1	-23.1096	-35.4175	-8.02928
102	1	1	-23.9773	-35.88	-8.32137
103	1	1	-24.8827	-36.0395	-8.49125
104	1	1	-25.8124	-35.8663	-8.27102
105	1	1	-26.7231	-35.6301	-7.99131
106	1	1	-27.545	-35.1565	-7.80424
107	1	1	-28.5876	-35.065	-7.68011
108	1	1	-29.5459	-34.7914	-7.47124
109	1	1	-30.543	-34.7764	-7.69786
110	1	1	-31.5417	-34.7097	-7.74403
111	1	1	-32.5058	-34.7395	-7.94104
112	1	1	-33.5461	-34.897	-7.78514
113	1	1	-34.4902	-34.755	-7.63491
114	1	1	-35.423	-34.4835	-7.47255
115	1	1	-36.252	-34.0242	-7.69978
116	1	1	-37.1032	-33.6251	-8.05078
117	1	1	-37.9233	-33.4432	-8.63602
118	1	1	-38.7147	-33.017	-9.12612
119	1	1	-39.4664	-32.7344	-9.75413
120	1	1	-40.2511	-32.4021	-10.3043
121	1	1	-40.8568	-32.0832	-10.9151
122	1	1	-41.1393	-31.6848	-11.7998
123	1	1	-41.1965	-31.3535	-12.6674
124	1	1	-40.9153	-31.075	-13.5985
125	1	1	-40.872	-31.3459	-14.6269
126	1	1	-40.3051	-31.2184	-15.4233
127	1	1	-40.2055	-31.1925	-16.4348
128	1	1	-40.2514	-31.3871	-17.4514
129	1	1	-39.9163	-31.7456	-18.3406
130	1	1	-39.6304	-32.2557	-19.1342
131	1	1	-39.6625	-32.3386	-20.1222
132	1	1	-39.3756	-32.1629	-21.08
133	1	1	-39.0076	-32.187	-22.0201
134	1	1	-38.5399	-32.0943	-22.9514
135	1	1	-38.169	-32.5067	-23.7859
136	1	1	-37.6375	-32.703	-24.6199
137	1	1	-37.2686	-33.0213	-25.4766
138	1	1	-37.0384	-33.6064	-26.2129
139	1	1	-36.5521	-33.8834	-27.0674
140	1	1	-35.8874	-33.9658	-27.7863
141	1	1	-35.1053	-34.2988	-28.5867
142	1	1	-34.4674	-34.3611	-29.3831
143	1	1	-33.6264	-34.4826	-29.9398
144	1	1	-32.5816	-34.8701	-30.0021
145	1	1	-31.6309	-35.2215	-30.0212
146	1	1	-30.7118	-35.7096	-29.8008
147	1	1	-29.7872	-35.9669	-29.7968
148	1	1	-28.9196	-36.4857	-29.8652
149	1	1	-28.0667	-36.9722	-29.7616
150	1	1	-27.241	-37.5213	-29.4077
151	1	1	-26.5107	-37.7777	-28.7834
152	1	1	-25.9163	-38.0193	-28.0705
153	1	1	-24.998	-38.2613	-27.5675
154	1	1	-24.2196	-38.7382	-27.1657
155	1	1	-23.4931	-39.324	-26.7221
156	1	1	-22.7305	-39.5973	-26.1604
157	1	1	-21.8547	-39.7351	-25.7446
158	1	1	-21.1961	-40.1646	-25.1368
159	1	1	-20.6006	-40.8792	-24.8406
160	1	1	-20.2037	-41.6396	-24.2439
161	1	1	-19.4199	-41.9874	-23.6781
162	1	1	-19.1012	-42.4991	-22.9275
163	1	1	-18.7024	-43.1175	-22.2915
164	1	1	-18.0532	-43.8668	-21.6477
165	1	1	-17.5656	-44.4752	-21.1292
166	1	1	-17.177	-45.1844	-20.5764
167	1	1	-16.4074	-45.8426	-20.2524
168	1	1	-15.6378	-46.3923	-19.8687
169	1	1	-14.9809	-47.2215	-19.567
170	1	1	-14.2238	-47.8991	-19.4567
171	1	1	-13.4838	-48.5361	-19.2897
172	1	1	-12.6105	-48.9057	-19.0963
173	1	1	-11.7787	-49.2442	-19.1725
174	1	1	-10.8748	-49.4901	-19.1454
175	1	1	-10.126	-49.5575	-18.4908
176	1	1	-9.40362	-49.6144	-17.8215
177	1	1	-8.93076	-49.6027	-16.957
178	1	1	-8.68483	-49.6002	-16.0053
179	1	1	-8.3578	-49.6106	-15.0041
180	1	1	-7.95728	-49.6258	-14.1441
181	1	1	-7.52403	-49.6219	-13.2341
182	1	1	-7.38345	-49.8664	-12.2954
183	1	1	-7.31787	-50.1773	-11.3984
184	1	1	-7.34833	-50.569	-10.4789
185	1	1	-6.96668	-50.6146	-9.49639
186	1	1	-6.6287	-50.3123	-8.50718
187	1	1	-6.12067	-50.0219	-7.75857
188	1	1	-5.6914	-49.7478	-6.98101
189	1	1	-5.76835	-49.2385	-6.04328
190	1	1	-5.88627	-48.9079	-5.16018
191	1	1	-5.93797	-48.7381	-4.22197
192	1	1	-6.18935	-48.7978	-3.21291
193	1	1	-6.28156	-48.7041	-2.24587
194	1	1	-6.17826	-48.8848	-1.28799
195	1	1	-5.93418	-49.3801	-0.453477
196	1	1	-5.76885	-49.3878	0.585767
197	1	1	-5.75298	-49.2186	1.55117
198	1	1	-5.37046	-49.6089	2.4011
199	1	1	-5.30344	-50.1889	3.16335
200	1	1	-5.67297	-50.7577	3.88938
201	1	1	-5.7604	-51.5632	4.50444
202	1	1	-5.34781	-52.24	5.08014
203	1	1	-5.0702	-52.7793	5.80249
204	1	1	-4.52555	-53.1307	6.59218
205	1	1	-3.76717	-53.4694	7.26506
206	1	1	-3.23627	-53.7067	8.10465
207	1	1	-2.49517	-53.6205	8.73862
208	1	1	-1.77228	-53.3628	9.36953
209	1	1	-0.884756	-53.2508	9.80871
210	1	1	0.0913534	-53.2123	10.0013
211	1	1	1.03959	-52.9004	10.1115
212	1	1	1.94157	-52.6623	10.1803
213	1	1	2.89396	-52.6882	10.0775
214	1	1	3.89162	-52.6331	10.1548
215	1	1	4.82384	-52.5529	9.92918
216	1	1	5.81512	-52.6229	9.86207
217	1	1	6.7266	-52.8493	10.1299
218	1	1	7.62325	-52.5131	10.3209
219	1	1	8.54426	-52.6491	10.5115
220	1	1	9.49682	-52.6771	10.7906
221	1	1	10.4598	-52.361	10.9379
222	1	1	11.4111	-52.0768	11.3501
223	1	1	12.2569	-51.6304	11.5952
224	1	1	12.4705	-50.8295	12.1545
225	1	1	12.651	-49.7909	12.3799
226	1	1	12.4636	-48.9315	12.9102
227	1	1	12.2147	-48.1308	13.3787
228	1	1	12.0938	-47.1718	13.522
229	1	1	12.175	-46.1992	13.4866
230	1	1	12.2566	-45.3523	13.0259
231	1	1	11.9256	-44.5917	12.4106
232	1	1	11.5869	-43.8889	11.8013
233	1	1	11.1854	-43.2662	11.0305
234	1	1	10.6395	-42.5696	10.683
235	1	1	9.88362	-41.8961	10.5475
236	1	1	9.34824	-41.0947	10.5463
237	1	1	9.17859	-40.1458	10.5327
238	1	1	8.99585	-39.0872	10.604
239	1	1	8.74397	-38.1102	10.4422
240	1	1	8.65544	-37.168	10.3612
241	1	1	8.2595	-36.2157	10.3482
242	1	1	7.86957	-35.2928	10.44
243	1	1	7.58682	-34.3703	10.2068
244	1	1	7.33408	-33.4433	9.94289
245	1	1	7.04418	-32.5839	9.76476
246	1	1	6.76645	-31.6325	9.46095
247	1	1	6.27665	-30.8431	9.23668
248	1	1	5.92643	-29.9786	9.15083
249	1	1	5.5236	-29.0455	9.07228
250	1	1	5.38218	-28.1006	8.70845
251	1	1	4.94605	-27.1753	8.56788
252	1	1	4.7606	-26.2333	8.24431
253	1	1	4.08087	-25.6438	7.87643
254	1	1	3.39583	-25.0617	7.78175
255	1	1	2.8186	-24.2549	7.75103
256	1	1	2.03053	-23.7026	7.66234
257	1	1	1.423	-22.9877	7.67666
258	1	1	0.63207	-22.5018	8.10755
259	1	1	-0.327149	-22.2225	8.38007
260	1	1	-1.31721	-21.9316	8.48828
261	1	1	-2.44288	-21.7299	8.42894
262	1	1	-3.29119	-21.2687	8.29473
263	1	1	-4.14924	-20.9454	8.04206
264	1	1	-5.00293	-20.5723	7.64204
265	1	1	-5.64327	-19.8951	7.22945
266	1	1	-6.20698	-19.3076	6.76449
267	1	1	-6.80244	-18.519	6.44034
268	1	1	-7.21385	-17.6583	6.4575
269	1	1	-7.65158	-16.7624	6.51775
270	1	1	-7.81761	-15.6565	6.52084
271	1	1	-8.17818	-14.7034	6.61896
272	1	1	-8.19056	-13.7508	6.83443
273	1	1	-7.8713	-12.8374	7.09823
274	1	1	-7.46119	-12.0651	7.60406
275	1	1	-7.45834	-11.3004	8.23994
276	1	1	-7.76873	-10.4856	8.6087
277	1	1	-8.07187	-9.55935	8.73909
278	1	1	-8.24149	-8.57676	8.7216
279	1	1	-8.6843	-7.71766	8.5251
280	1	1	-9.13313	-6.9368	8.18444
281	1	1	-9.8811	-6.32796	8.26785
282	1	1	-10.7824	-5.95251	7.78618
283	1	1	-11.6825	-5.80372	7.32838
284	1	1	-12.1547	-5.7146	6.48339
285	1	1	-12.651	-5.93466	5.63286
286	1	1	-12.6445	-6.37419	4.77551
287	1	1	-12.3821	-6.78781	3.76998
288	1	1	-12.0301	-6.91993	2.88189
289	1	1	-11.3874	-6.76933	2.1663
290	1	1	-10.8355	-6.34762	1.44807
291	1	1	-10.1007	-5.87223	0.932023
292	1	1	-9.43923	-5.12924	0.641651
293	1	1	-8.66459	-4.45104	0.587065
294	1	1	-7.7071	-3.9644	0.465332
295	1	1	-6.80586	-3.58493	0.52528
296	1	1	-6.03342	-3.0118	0.442926
297	1	1	-5.21462	-2.54119	0.439611
298	1	1	-4.26242	-2.175	0.509815
299	1	1	-3.53445	-1.44451	0.312649
300	1	1	-2.72588	-0.793997	0.403701

Bonds

1	1	1	2
2	1	2	3
3	1	3	4
4	1	4	5
5	1	5	6
6	1	6	7
7	1	7	8
8	1	8	9
9	1	9	10
10	1	10	11
11	1	11	12
12	1	12	13
13	1	13	14
14	1	14	15
15	1	15	16
16	1	16	17
17	1	17	18
18	1	18	19
19	1	19	20
20	1	20	21
21	1	21	22
22	1	22	23
23	1	23	24
24	1	24	25
25	1	25	26
26	1	26	27
27	1	27	28
28	1	28	29
29	1	29	30
30	1	30	31
31	1	31	32
32	1	32	33
33	1	33	34
34	1	34	35
35	1	35	36
36	1	36	37
37	1	37	38
38	1	38	39
39	1	39	40
40	1	40	41
41	1	41	42
42	1	42	43
43	1	43	44
44	1	44	45
45	1	45	46
46	1	46	47
47	1	47	48
48	1	48	49
49	1	49	50
50	1	50	51
51	1	51	52
52	1	52	53
53	1	53	54
54	1	54	55
55	1	55	56
56	1	56	57
57	1	57	58
58	1	58	59
59	1	59	60
60	1	60	61
61	1	61	62
62	1	62	63
63	1	63	64
64	1	64	65
65	1	65	66
66	1	66	67
67	1	67	68
68	1	68	69
69	1	69	70
70	1	70	71
71	1	71	72
72	1	72	73
73	1	73	74
74	1	74	75
75	1	75	76
76	1	76	77
77	1	77	78
78	1	78	79
79	1	79	80
80	1	80	81
81	1	81	82
82	1	82	83
83	1	83	84
84	1	84	85
85	1	85	86
86	1	86	87
87	1	87	88
88	1	88	89
89	1	89	90
90	1	90	91
91	1	91	92
92	1	92	93
93	1	93	94
94	1	94	95
95	1	95	96
96	1	96	97
97	1	97	98
98	1	98	99
99	1	99	100
100	1	100	101
101	1	101	102
102	1	102	103
103	1	103	104
104	1	104	105
105	1	105	106
106	1	106	107
107	1	107	108
108	1	108	109
109	1	109	110
110	1	110	111
111	1	111	112
112	1	112	113
113	1	113	114
114	1	114	115
115	1	115	116
116	1	116	117
117	1	117	118
118	1	118	119
119	1	119	120
120	1	120	121
121	1	121	122
122	1	122	123
123	1	123	124
124	1	124	125
125	1	125	126
126	1	126	127
127	1	127	128
128	1	128	129
129	1	129	130
130	1	130	131
131	1	131	132
132	1	132	133
133	1	133	134
134	1	134	135
135	1	135	136
136	1	136	137
137	1	137	138
138	1	138	139
139	1	139	140
140	1	140	141
141	1	141	142
142	1	142	143
143	1	143	144
144	1	144	145
145	1	145	146
146	1	146	147
147	1	147	148
148	1	148	149
149	1	149	150
150	1	150	151
151	1	151	152
152	1	152	153
153	1	153	154
154	1	154	155
155	1	155	156
156	1	156	157
157	1	157	158
158	1	158	159
159	1	159	160
160	1	160	161
161	1	161	162
162	1	162	163
163	1	163	164
164	1	164	165
165	1	165	166
166	1	166	167
167	1	167	168
168	1	168	169
169	1	169	170
170	1	170	171
171	1	171	172
172	1	172	173
173	1	173	174
174	1	174	175
175	1	175	176
176	1	176	177
177	1	177	178
178	1	178	179
179	1	179	180
180	1	180	181
181	1	181	182
182	1	182	183
183	1	183	184
184	1	184	185
185	1	185	186
186	1	186	187
187	1	187	188
188	1	188	189
189	1	189	190
190	1	190	191
191	1	191	192
192	1	192	193
193	1	193	194
194	1	194	195
195	1	195	196
196	1	196	197
197	1	197	198
198	1	198	199
199	1	199	200
200	1	200	201
201	1	201	202
202	1	202	203
203	1	203	204
204	1	204	205
205	1	205	206
206	1	206	207
207	1	207	208
208	1	208	209
209	1	209	210
210	1	210	211
211	1	211	212
212	1	212	213
213	1	213	214
214	1	214	215
215	1	215	216
216	1	216	217
217	1	217	218
218	1	218	219
219	1	219	220
220	1	220	221
221	1	221	222
222	1	222	223
223	1	223	224
224	1	224	225
225	1	225	226
226	1	226	227
227	1	227	228
228	1	228	229
229	1	229	230
230	1	230	231
231	1	231	232
232	1	232	233
233	1	233	234
234	1	234	235
235	1	235	236
236	1	236	237
237	1	237	238
238	1	238	239
239	1	239	240
240	1	240	241
241	1	241	242
242	1	242	243
243	1	243	244
244	1	244	245
245	1	245	246
246	1	246	247
247	1	247	248
248	1	248	249
249	1	249	250
250	1	250	251
251	1	251	252
252	1	252	253
253	1	253	254
254	1	254	255
255	1	255	256
256	1	256	257
257	1	257	258
258	1	258	259
259	1	259	260
260	1	260	261
261	1	261	262
262	1	262	263
263	1	263	264
264	1	264	265
265	1	265	266
266	1	266	267
267	1	267	268
268	1	268	269
269	1	269	270
270	1	270	271
271	1	271	272
272	1	272	273
273	1	273	274
274	1	274	275
275	1	275	276
276	1	276	277
277	1	277	278
278	1	278	279
279	1	279	280
280	1	280	281
281	1	281	282
282	1	282	283
283	1	283	284
284	1	284	285
285	1	285	286
286	1	286	287
287	1	287	288
288	1	288	289
289	1	289	290
290	1	290	291
291	1	291	292
292	1	292	293
293	1	293	294
294	1	294	295
295	1	295	296
296	1	296	297
297	1	297	298
298	1	298	299
299	1	299	300
300	1	300	1

Angles

1	1	1	2	3
2	1	2	3	4
3	1	3	4	5
4	1	4	5	6
5	1	5	6	7
6	1	6	7	8
7	1	7	8	9
8	1	8	9	10
9	1	9	10	11
10	1	10	11	12
11	1	11	12	13
12	1	12	13	14
13	1	13	14	15
14	1	14	15	16
15	1	15	16	17
16	1	16	17	18
17	1	17	18	19
18	1	18	19	20
19	1	19	20	21
20	1	20	21	22
21	1	21	22	23
22	1	22	23	24
23	1	23	24	25
24	1	24	25	26
25	1	25	26	27
26	1	26	27	28
27	1	27	28	29
28	1	28	29	30
29	1	29	30	31
30	1	30	31	32
31	1	31	32	33
32	1	32	33	34
33	1	33	34	35
34	1	34	35	36
35	1	35	36	37
36	1	36	37	38
37	1	37	38	39
38	1	38	39	40
39	1	39	40	41
40	1	40	41	42
41	1	41	42	43
42	1	42	43	44
43	1	43	44	45
44	1	44	45	46
45	1	45	46	47
46	1	46	47	48
47	1	47	48	49
48	1	48	49	50
49	1	49	50	51
50	1	50	51	52
51	1	51	52	53
52	1	52	53	54
53	1	53	54	55
54	1	54	55	56
55	1	55	56	57
56	1	56	57	58
57	1	57	58	59
58	1	58	59	60
59	1	59	60	61
60	1	60	61	62
61	1	61	62	63
62	1	62	63	64
63	1	63	64	65
64	1	64	65	66
65	1	65	66	67
66	1	66	67	68
67	1	67	68	69
68	1	68	69	70
69	1	69	70	71
70	1	70	71	72
71	1	71	72	73
72	1	72	73	74
73	1	73	74	75
74	1	74	75	76
75	1	75	76	77
76	1	76	77	78
77	1	77	78	79
78	1	78	79	80
79	1	79	80	81
80	1	80	81	82
81	1	81	82	83
82	1	82	83	84
83	1	83	84	85
84	1	84	85	86
85	1	85	86	87
86	1	86	87	88
87	1	87	88	89
88	1	88	89	90
89	1	89	90	91
90	1	90	91	92
91	1	91	92	93
92	1	92	93	94
93	1	93	94	95
94	1	94	95	96
95	1	95	96	97
96	1	96	97	98
97	1	97	98	99
98	1	98	99	100
99	1	99	100	101
100	1	100	101	102
101	1	101	102	103
102	1	102	103	104
103	1	103	104	105
104	1	104	105	106
105	1	105	106	107
106	1	106	107	108
107	1	107	108	109
108	1	108	109	110
109	1	109	110	111
110	1	110	111	112
111	1	111	112	113
112	1	112	113	114
113	1	113	114	115
114	1	114	115	116
115	1	115	116	117
116	1	116	117	118
117	1	117	118	119
118	1	118	119	120
119	1	119	120	121
120	1	120	121	122
121	1	121	122	123
122	1	122	123	124
123	1	123	124	125
124	1	124	125	126
125	1	125	126	127
126	1	126	127	128
127	1	127	128	129
128	1	128	129	130
129	1	129	130	131
130	1	130	131	132
131	1	131	132	133
132	1	132	133	134
133	1	133	134	135
134	1	134	135	136
135	1	135	136	137
136	1	136	137	138
137	1	137	138	139
138	1	138	139	140
139	1	139	140	141
140	1	140	141	142
141	1	141	142	143
142	1	142	143	144
143	1	143	144	145
144	1	144	145	146
145	1	145	146	147
146	1	146	147	148
147	1	147	148	149
148	1	148	149	150
149	1	149	150	151
150	1	150	151	152
151	1	151	152	153
152	1	152	153	154
153	1	153	154	155
154	1	154	155	156
155	1	155	156	157
156	1	156	157	158
157	1	157	158	159
158	1	158	159	160
159	1	159	160	161
160	1	160	161	162
161	1	161	162	163
162	1	162	163	164
163	1	163	164	165
164	1	164	165	166
165	1	165	166	167
166	1	166	167	168
167	1	167	168	169
168	1	168	169	170
169	1	169	170	171
170	1	170	171	172
171	1	171	172	173
172	1	172	173	174
173	1	173	174	175
174	1	174	175	176
175	1	175	176	177
176	1	176	177	178
177	1	177	178	179
178	1	178	179	180
179	1	179	180	181
180	1	180	181	182
181	1	181	182	183
182	1	182	183	184
183	1	183	184	185
184	1	184	185	186
185	1	185	186	187
186	1	186	187	188
187	1	187	188	189
188	1	188	189	190
189	1	189	190	191
190	1	190	191	192
191	1	191	192	193
192	1	192	193	194
193	1	193	194	195
194	1	194	195	196
195	1	195	196	197
196	1	196	197	198
197	1	197	198	199
198	1	198	199	200
199	1	199	200	201
200	1	200	201	202
201	1	201	202	203
202	1	202	203	204
203	1	203	204	205
204	1	204	205	206
205	1	205	206	207
206	1	206	207	208
207	1	207	208	209
208	1	208	209	210
209	1	209	210	211
210	1	210	211	212
211	1	211	212	213
212	1	212	213	214
213	1	213	214	215
214	1	214	215	216
215	1	215	216	217
216	1	216	217	218
217	1	217	218	219
218	1	218	219	220
219	1	219	220	221
220	1	220	221	222
221	1	221	222	223
222	1	222	223	224
223	1	223	224	225
224	1	224	225	226
225	1	225	226	227
226	1	226	227	228
227	1	227	228	229
228	1	228	229	230
229	1	229	230	231
230	1	230	231	232
231	1	231	232	233
232	1	232	233	234
233	1	233	234	235
234	1	234	235	236
235	1	235	236	237
236	1	236	237	238
237	1	237	238	239
238	1	238	239	240
239	1	239	240	241
240	1	240	241	242
241	1	241	242	243
242	1	242	243	244
243	1	243	244	245
244	1	244	245	246
245	1	245	246	247
246	1	246	247	248
247	1	247	248	249
248	1	248	249	250
249	1	249	250	251
250	1	250	251	252
251	1	251	252	253
252	1	252	253	254
253	1	253	254	255
254	1	254	255	256
255	1	255	256	257
256	1	256	257	258
257	1	257	258	259
258	1	258	259	260
259	1	259	260	261
260	1	260	261	262
261	1	261	262	263
262	1	262	263	264
263	1	263	264	265
264	1	264	265	266
265	1	265	266	267
266	1	266	267	268
267	1	267	268	269
268	1	268	269	270
269	1	269	270	271
270	1	270	271	272
271	1	271	272	273
272	1	272	273	274
273	1	273	274	275
274	1	274	275	276
275	1	275	276	277
276	1	276	277	278
277	1	277	278	279
278	1	278	279	280
279	1	279	280	281
280	1	280	281	282
281	1	281	282	283
282	1	282	283	284
283	1	283	284	285
284	1	284	285	286
285	1	285	286	287
286	1	286	287	288
287	1	287	288	289
288	1	288	289	290
289	1	289	290	291
290	1	290	291	292
291	1	291	292	293
292	1	292	293	294
293	1	293	294	295
294	1	294	295	296
295	1	295	296	297
296	1	296	297	298
297	1	297	298	299
298	1	298	299	300
299	1	299	300	1
300	1	300	1	2
