#LAMMPS input file
300 atoms
300 bonds
300 angles

1 atom types
1 bond types
1 angle types

-100 100 xlo xhi
-100 100 ylo yhi
-50 50 zlo zhi

Masses

1 1.0

Atoms

1	1	1	-1.86603	-0.5	0.0
2	1	1	-0.866025	-0.5	0.0
3	1	1	0.0	5.55112e-17	0.0
4	1	1	0.5	0.866025	0.0
5	1	1	0.5	1.86603	0.0
6	1	1	0.182546	2.66757	-0.616415
7	1	1	-0.460063	3.49266	-0.849852
8	1	1	-1.30429	3.90557	-1.02369
9	1	1	-2.20208	4.04097	-1.52944
10	1	1	-3.06677	4.09726	-1.9345
11	1	1	-3.99421	3.89662	-2.25296
12	1	1	-4.88793	3.84779	-2.60827
13	1	1	-5.84188	3.84177	-2.80731
14	1	1	-6.71949	3.49934	-2.94223
15	1	1	-7.70841	3.38835	-2.70083
16	1	1	-8.76468	3.38559	-2.4351
17	1	1	-9.70036	3.14469	-1.92584
18	1	1	-10.5483	3.31675	-1.46809
19	1	1	-11.5295	3.5506	-1.11966
20	1	1	-12.3444	3.73281	-0.433281
21	1	1	-13.1846	3.99764	0.0307383
22	1	1	-14.0233	4.14551	0.44103
23	1	1	-14.9914	3.97844	0.43361
24	1	1	-15.8918	3.71067	0.717384
25	1	1	-16.8528	3.78229	0.941618
26	1	1	-17.824	3.48841	0.874814
27	1	1	-18.7619	3.16862	0.962662
28	1	1	-19.5057	2.51235	0.79308
29	1	1	-20.0723	1.77089	0.526725
30	1	1	-20.1916	0.961781	0.0210495
31	1	1	-20.1692	0.0461931	-0.299372
32	1	1	-20.0819	-0.891418	-0.649575
33	1	1	-20.0055	-1.61147	-1.25245
34	1	1	-20.2675	-2.36464	-1.86344
35	1	1	-20.4252	-3.30385	-2.08776
36	1	1	-20.6806	-4.24121	-2.3611
37	1	1	-20.5099	-5.2136	-2.60101
38	1	1	-20.2731	-6.15492	-2.67701
39	1	1	-20.448	-7.09168	-2.49673
40	1	1	-21.006	-7.86797	-2.59898
41	1	1	-21.4328	-8.68071	-2.9797
42	1	1	-21.5288	-9.49535	-3.56566
43	1	1	-21.4767	-10.3622	-4.07547
44	1	1	-21.6026	-11.2277	-4.55131
45	1	1	-21.7327	-11.8278	-5.29023
46	1	1	-22.0748	-12.1698	-6.20815
47	1	1	-22.2212	-12.7253	-6.964
48	1	1	-22.494	-13.4417	-7.63821
49	1	1	-22.9722	-14.1294	-8.19198
50	1	1	-23.1028	-14.9986	-8.85359
51	1	1	-23.4056	-15.7255	-9.33017
52	1	1	-23.6234	-16.695	-9.54766
53	1	1	-23.4494	-17.6054	-9.74937
54	1	1	-22.9569	-18.328	-9.98629
55	1	1	-22.473	-19.1438	-10.1921
56	1	1	-21.9326	-19.9832	-10.3943
57	1	1	-21.1831	-20.5292	-10.4308
58	1	1	-20.2088	-20.589	-10.2414
59	1	1	-19.295	-20.635	-9.84262
60	1	1	-18.4111	-20.592	-9.4168
61	1	1	-17.5669	-20.4618	-8.8593
62	1	1	-16.8279	-20.1793	-8.25165
63	1	1	-16.0259	-20.0533	-7.63798
64	1	1	-15.5859	-19.8244	-6.824
65	1	1	-15.6486	-19.8908	-5.85912
66	1	1	-15.5338	-20.1065	-4.95329
67	1	1	-15.518	-20.5632	-3.9628
68	1	1	-15.3428	-21.3005	-3.32552
69	1	1	-15.4267	-21.892	-2.51034
70	1	1	-15.4839	-22.5016	-1.69754
71	1	1	-15.7174	-23.2877	-1.26928
72	1	1	-15.7799	-24.2675	-0.804142
73	1	1	-15.6549	-25.1358	-0.461082
74	1	1	-15.2431	-26.0548	-0.101337
75	1	1	-15.1888	-27.2381	-0.0400255
76	1	1	-15.3593	-28.1925	-0.146573
77	1	1	-15.5054	-29.1444	-0.318535
78	1	1	-15.6205	-30.0872	-0.436251
79	1	1	-16.0545	-30.9759	-0.521406
80	1	1	-16.5795	-31.9091	-0.484669
81	1	1	-16.8942	-32.8878	-0.511072
82	1	1	-17.101	-33.8781	-0.557717
83	1	1	-17.304	-34.9503	-0.504112
84	1	1	-17.2283	-35.8779	-0.26065
85	1	1	-17.2989	-36.7623	0.104254
86	1	1	-17.5895	-37.6193	0.365075
87	1	1	-17.8882	-38.5442	0.824729
88	1	1	-18.5686	-39.2198	1.20485
89	1	1	-19.2455	-40.0977	1.41237
90	1	1	-19.859	-40.7969	1.12718
91	1	1	-20.4436	-41.5696	0.81689
92	1	1	-21.2039	-42.1022	0.479277
93	1	1	-22.0286	-42.7885	0.464078
94	1	1	-22.6743	-43.4852	0.292885
95	1	1	-23.0211	-44.2813	-0.173613
96	1	1	-23.45	-44.9786	-0.643218
97	1	1	-23.9522	-45.7933	-0.895664
98	1	1	-24.6165	-46.3727	-1.24486
99	1	1	-25.4375	-46.668	-1.60851
100	1	1	-26.1999	-46.5796	-2.24971
101	1	1	-26.7398	-46.398	-3.0218
102	1	1	-27.1636	-46.224	-3.8706
103	1	1	-27.37	-46.091	-4.91673
104	1	1	-27.506	-45.6817	-5.9217
105	1	1	-27.3882	-45.0379	-6.66524
106	1	1	-27.1596	-44.4902	-7.38615
107	1	1	-26.8705	-44.0969	-8.25718
108	1	1	-26.771	-43.5642	-9.10489
109	1	1	-26.7362	-43.1589	-9.9528
110	1	1	-26.3082	-42.438	-10.5445
111	1	1	-25.8677	-42.1432	-11.3998
112	1	1	-25.2227	-41.8121	-12.0879
113	1	1	-24.8571	-41.9379	-13.1142
114	1	1	-24.7968	-41.8046	-14.0379
115	1	1	-24.8768	-41.5764	-14.9736
116	1	1	-25.2509	-41.2953	-15.8782
117	1	1	-25.5336	-40.6846	-16.6884
118	1	1	-25.9943	-40.2919	-17.4746
119	1	1	-26.6752	-39.7938	-17.9414
120	1	1	-27.391	-39.272	-18.2615
121	1	1	-28.1427	-38.8453	-18.828
122	1	1	-28.9816	-38.8042	-19.301
123	1	1	-29.8966	-38.934	-19.7737
124	1	1	-30.9217	-38.8876	-19.6015
125	1	1	-31.8665	-39.344	-19.697
126	1	1	-32.757	-39.5525	-19.2829
127	1	1	-33.4943	-40.0087	-18.8293
128	1	1	-34.0914	-40.3842	-18.2023
129	1	1	-34.891	-40.9274	-18.0108
130	1	1	-35.6763	-41.1799	-17.449
131	1	1	-36.3063	-41.5469	-16.8627
132	1	1	-36.7885	-41.928	-16.1283
133	1	1	-36.9331	-42.4826	-15.3203
134	1	1	-36.5875	-42.8947	-14.4976
135	1	1	-36.7322	-43.5293	-13.6503
136	1	1	-36.711	-43.8646	-12.7158
137	1	1	-36.9648	-44.3244	-11.8301
138	1	1	-36.9024	-44.7552	-10.9498
139	1	1	-36.631	-45.1625	-10.1212
140	1	1	-36.8143	-45.959	-9.32535
141	1	1	-36.7719	-46.5438	-8.51509
142	1	1	-36.5482	-47.0709	-7.69298
143	1	1	-36.3157	-47.5448	-6.81845
144	1	1	-35.6783	-48.2011	-6.19155
145	1	1	-35.1266	-48.5571	-5.43402
146	1	1	-34.6603	-48.7967	-4.53849
147	1	1	-34.0868	-48.9998	-3.82871
148	1	1	-33.1972	-49.1876	-3.39692
149	1	1	-32.3486	-49.0473	-2.66641
150	1	1	-31.6138	-49.2676	-2.15309
151	1	1	-30.6994	-49.3376	-1.85339
152	1	1	-29.8664	-49.5422	-1.42968
153	1	1	-29.0746	-49.6591	-0.992625
154	1	1	-28.2102	-50.2955	-0.745181
155	1	1	-27.4432	-50.7903	-0.380822
156	1	1	-26.6375	-51.2538	0.0306553
157	1	1	-25.8336	-51.8435	0.0313293
158	1	1	-24.8556	-52.2974	-0.0787603
159	1	1	-23.927	-52.465	-0.161426
160	1	1	-22.9602	-52.9748	-0.255147
161	1	1	-22.042	-53.0824	-0.556743
162	1	1	-21.0921	-53.118	-0.858319
163	1	1	-20.2046	-52.7151	-1.15991
164	1	1	-19.4762	-52.2237	-1.55093
165	1	1	-18.9724	-51.5665	-2.13186
166	1	1	-18.3397	-50.969	-2.58099
167	1	1	-17.969	-50.2442	-3.19798
168	1	1	-17.7079	-49.553	-3.74329
169	1	1	-17.7228	-48.7167	-4.32397
170	1	1	-17.5876	-48.1141	-5.00643
171	1	1	-17.4623	-47.3255	-5.58087
172	1	1	-17.4472	-46.3982	-5.81992
173	1	1	-17.4763	-45.4407	-5.48171
174	1	1	-17.6722	-44.5481	-5.07409
175	1	1	-18.1997	-43.7024	-5.11014
176	1	1	-18.959	-43.1426	-5.17037
177	1	1	-19.906	-42.8597	-4.94331
178	1	1	-20.7933	-42.4538	-4.94917
179	1	1	-21.7151	-42.1237	-4.8007
180	1	1	-22.7117	-42.2981	-4.8422
181	1	1	-23.4931	-42.5877	-5.30246
182	1	1	-24.4823	-42.831	-5.76099
183	1	1	-25.2087	-42.6841	-6.33646
184	1	1	-26.0345	-42.2849	-6.54735
185	1	1	-27.0446	-42.07	-6.60933
186	1	1	-27.819	-41.3735	-6.92238
187	1	1	-28.4296	-40.6574	-6.93227
188	1	1	-29.0607	-39.9436	-7.23112
189	1	1	-29.7543	-39.3598	-7.69372
190	1	1	-30.3961	-38.6606	-8.03969
191	1	1	-30.8263	-37.9811	-8.61929
192	1	1	-31.1496	-37.3318	-9.29405
193	1	1	-31.2793	-36.6537	-10.0918
194	1	1	-31.9555	-36.3056	-10.8097
195	1	1	-32.2461	-36.433	-11.7811
196	1	1	-32.6713	-36.7255	-12.7085
197	1	1	-33.1309	-36.9355	-13.5712
198	1	1	-33.6336	-37.611	-14.0675
199	1	1	-34.0615	-38.3435	-14.487
200	1	1	-34.4267	-39.2761	-14.5676
201	1	1	-34.954	-40.0801	-15.0701
202	1	1	-34.78	-40.8303	-15.6012
203	1	1	-34.7034	-41.8534	-16.1414
204	1	1	-34.362	-42.7838	-16.4592
205	1	1	-33.7925	-43.4969	-16.7157
206	1	1	-33.2427	-44.4618	-16.8544
207	1	1	-32.6012	-45.2396	-16.8758
208	1	1	-31.8001	-45.9202	-16.9586
209	1	1	-31.081	-46.6224	-17.0178
210	1	1	-30.3295	-47.4024	-16.9848
211	1	1	-29.5823	-47.9777	-16.5515
212	1	1	-28.8602	-48.2274	-16.0175
213	1	1	-28.1184	-48.69	-15.4971
214	1	1	-27.2463	-48.952	-15.1725
215	1	1	-26.5821	-49.3775	-14.6189
216	1	1	-25.9022	-49.9274	-14.1337
217	1	1	-25.5283	-50.3689	-13.3594
218	1	1	-24.7426	-50.756	-12.8757
219	1	1	-24.0586	-51.2869	-12.538
220	1	1	-23.4674	-51.9069	-11.8817
221	1	1	-22.8537	-52.3111	-11.2772
222	1	1	-22.4954	-52.6785	-10.4584
223	1	1	-22.1655	-52.926	-9.55367
224	1	1	-21.6029	-53.1631	-8.75552
225	1	1	-20.9687	-53.2033	-7.9228
226	1	1	-20.1638	-52.8315	-7.18557
227	1	1	-19.3354	-52.4477	-6.88038
228	1	1	-18.7054	-51.8637	-6.26774
229	1	1	-18.0572	-51.3642	-5.73666
230	1	1	-17.6005	-51.1042	-4.87243
231	1	1	-17.1823	-50.9666	-4.0321
232	1	1	-16.5843	-50.6261	-3.4035
233	1	1	-15.8215	-50.239	-2.8985
234	1	1	-15.2767	-49.6734	-2.18471
235	1	1	-14.9579	-49.3684	-1.34247
236	1	1	-14.8728	-48.8195	-0.553085
237	1	1	-14.852	-48.0645	0.104569
238	1	1	-14.7284	-47.2663	0.841234
239	1	1	-14.7933	-46.4178	1.36083
240	1	1	-14.8186	-45.407	1.83623
241	1	1	-14.4645	-44.456	1.8122
242	1	1	-13.897	-43.624	1.79233
243	1	1	-13.214	-42.8877	1.53259
244	1	1	-12.698	-42.1365	1.40665
245	1	1	-12.1203	-41.3925	1.06178
246	1	1	-11.325	-40.7476	0.912921
247	1	1	-10.7151	-39.9122	0.87883
248	1	1	-10.1232	-39.13	1.09001
249	1	1	-9.57392	-38.3836	1.3273
250	1	1	-9.13671	-37.554	1.42078
251	1	1	-9.057	-36.6386	1.26044
252	1	1	-9.43348	-35.6808	1.0189
253	1	1	-9.77836	-34.8653	0.629521
254	1	1	-9.54579	-33.9186	0.614261
255	1	1	-9.01951	-33.0082	0.85474
256	1	1	-8.70252	-32.0253	0.83453
257	1	1	-8.1793	-31.1655	1.23315
258	1	1	-7.69017	-30.3745	1.40208
259	1	1	-7.37213	-29.389	1.7184
260	1	1	-7.25458	-28.4367	1.8879
261	1	1	-6.86054	-27.4992	1.54699
262	1	1	-6.91031	-26.6332	1.03285
263	1	1	-6.94617	-25.629	0.77249
264	1	1	-7.09329	-24.7252	0.460731
265	1	1	-7.61308	-23.9257	0.299483
266	1	1	-8.19264	-23.0597	-0.0117292
267	1	1	-8.60343	-22.2088	-0.0658518
268	1	1	-8.99142	-21.2294	0.0917127
269	1	1	-9.22796	-20.3186	0.279062
270	1	1	-9.31711	-19.5025	0.866121
271	1	1	-9.26519	-18.569	1.42304
272	1	1	-9.62129	-17.7618	2.1413
273	1	1	-10.3107	-17.4233	2.70067
274	1	1	-10.7538	-16.8317	3.44587
275	1	1	-11.1928	-16.1215	4.15565
276	1	1	-11.69	-15.3338	4.48557
277	1	1	-12.1017	-14.5129	4.84629
278	1	1	-12.2498	-13.578	5.32121
279	1	1	-12.2448	-12.9712	6.11444
280	1	1	-12.3424	-11.9108	6.54938
281	1	1	-12.3431	-10.9593	6.53244
282	1	1	-12.362	-10.006	6.8083
283	1	1	-12.3524	-9.0612	6.75026
284	1	1	-12.5543	-8.17937	6.75074
285	1	1	-12.6199	-7.2297	6.63959
286	1	1	-12.5058	-6.39022	6.20232
287	1	1	-12.0041	-5.75623	5.62499
288	1	1	-11.4734	-5.22911	4.98616
289	1	1	-10.7809	-4.68096	4.52026
290	1	1	-9.91352	-4.6011	3.99125
291	1	1	-8.93334	-4.44921	3.60028
292	1	1	-8.36546	-3.686	3.35238
293	1	1	-7.91401	-3.01096	2.85266
294	1	1	-7.45362	-2.17244	2.39476
295	1	1	-7.19213	-1.25532	2.02569
296	1	1	-6.56324	-0.766476	1.37782
297	1	1	-5.6971	-0.447845	1.04809
298	1	1	-4.76857	-0.404503	0.890344
299	1	1	-3.71674	-0.424658	0.551275
300	1	1	-2.82805	-0.500111	0.0672761

Bonds

1	1	1	2
2	1	2	3
3	1	3	4
4	1	4	5
5	1	5	6
6	1	6	7
7	1	7	8
8	1	8	9
9	1	9	10
10	1	10	11
11	1	11	12
12	1	12	13
13	1	13	14
14	1	14	15
15	1	15	16
16	1	16	17
17	1	17	18
18	1	18	19
19	1	19	20
20	1	20	21
21	1	21	22
22	1	22	23
23	1	23	24
24	1	24	25
25	1	25	26
26	1	26	27
27	1	27	28
28	1	28	29
29	1	29	30
30	1	30	31
31	1	31	32
32	1	32	33
33	1	33	34
34	1	34	35
35	1	35	36
36	1	36	37
37	1	37	38
38	1	38	39
39	1	39	40
40	1	40	41
41	1	41	42
42	1	42	43
43	1	43	44
44	1	44	45
45	1	45	46
46	1	46	47
47	1	47	48
48	1	48	49
49	1	49	50
50	1	50	51
51	1	51	52
52	1	52	53
53	1	53	54
54	1	54	55
55	1	55	56
56	1	56	57
57	1	57	58
58	1	58	59
59	1	59	60
60	1	60	61
61	1	61	62
62	1	62	63
63	1	63	64
64	1	64	65
65	1	65	66
66	1	66	67
67	1	67	68
68	1	68	69
69	1	69	70
70	1	70	71
71	1	71	72
72	1	72	73
73	1	73	74
74	1	74	75
75	1	75	76
76	1	76	77
77	1	77	78
78	1	78	79
79	1	79	80
80	1	80	81
81	1	81	82
82	1	82	83
83	1	83	84
84	1	84	85
85	1	85	86
86	1	86	87
87	1	87	88
88	1	88	89
89	1	89	90
90	1	90	91
91	1	91	92
92	1	92	93
93	1	93	94
94	1	94	95
95	1	95	96
96	1	96	97
97	1	97	98
98	1	98	99
99	1	99	100
100	1	100	101
101	1	101	102
102	1	102	103
103	1	103	104
104	1	104	105
105	1	105	106
106	1	106	107
107	1	107	108
108	1	108	109
109	1	109	110
110	1	110	111
111	1	111	112
112	1	112	113
113	1	113	114
114	1	114	115
115	1	115	116
116	1	116	117
117	1	117	118
118	1	118	119
119	1	119	120
120	1	120	121
121	1	121	122
122	1	122	123
123	1	123	124
124	1	124	125
125	1	125	126
126	1	126	127
127	1	127	128
128	1	128	129
129	1	129	130
130	1	130	131
131	1	131	132
132	1	132	133
133	1	133	134
134	1	134	135
135	1	135	136
136	1	136	137
137	1	137	138
138	1	138	139
139	1	139	140
140	1	140	141
141	1	141	142
142	1	142	143
143	1	143	144
144	1	144	145
145	1	145	146
146	1	146	147
147	1	147	148
148	1	148	149
149	1	149	150
150	1	150	151
151	1	151	152
152	1	152	153
153	1	153	154
154	1	154	155
155	1	155	156
156	1	156	157
157	1	157	158
158	1	158	159
159	1	159	160
160	1	160	161
161	1	161	162
162	1	162	163
163	1	163	164
164	1	164	165
165	1	165	166
166	1	166	167
167	1	167	168
168	1	168	169
169	1	169	170
170	1	170	171
171	1	171	172
172	1	172	173
173	1	173	174
174	1	174	175
175	1	175	176
176	1	176	177
177	1	177	178
178	1	178	179
179	1	179	180
180	1	180	181
181	1	181	182
182	1	182	183
183	1	183	184
184	1	184	185
185	1	185	186
186	1	186	187
187	1	187	188
188	1	188	189
189	1	189	190
190	1	190	191
191	1	191	192
192	1	192	193
193	1	193	194
194	1	194	195
195	1	195	196
196	1	196	197
197	1	197	198
198	1	198	199
199	1	199	200
200	1	200	201
201	1	201	202
202	1	202	203
203	1	203	204
204	1	204	205
205	1	205	206
206	1	206	207
207	1	207	208
208	1	208	209
209	1	209	210
210	1	210	211
211	1	211	212
212	1	212	213
213	1	213	214
214	1	214	215
215	1	215	216
216	1	216	217
217	1	217	218
218	1	218	219
219	1	219	220
220	1	220	221
221	1	221	222
222	1	222	223
223	1	223	224
224	1	224	225
225	1	225	226
226	1	226	227
227	1	227	228
228	1	228	229
229	1	229	230
230	1	230	231
231	1	231	232
232	1	232	233
233	1	233	234
234	1	234	235
235	1	235	236
236	1	236	237
237	1	237	238
238	1	238	239
239	1	239	240
240	1	240	241
241	1	241	242
242	1	242	243
243	1	243	244
244	1	244	245
245	1	245	246
246	1	246	247
247	1	247	248
248	1	248	249
249	1	249	250
250	1	250	251
251	1	251	252
252	1	252	253
253	1	253	254
254	1	254	255
255	1	255	256
256	1	256	257
257	1	257	258
258	1	258	259
259	1	259	260
260	1	260	261
261	1	261	262
262	1	262	263
263	1	263	264
264	1	264	265
265	1	265	266
266	1	266	267
267	1	267	268
268	1	268	269
269	1	269	270
270	1	270	271
271	1	271	272
272	1	272	273
273	1	273	274
274	1	274	275
275	1	275	276
276	1	276	277
277	1	277	278
278	1	278	279
279	1	279	280
280	1	280	281
281	1	281	282
282	1	282	283
283	1	283	284
284	1	284	285
285	1	285	286
286	1	286	287
287	1	287	288
288	1	288	289
289	1	289	290
290	1	290	291
291	1	291	292
292	1	292	293
293	1	293	294
294	1	294	295
295	1	295	296
296	1	296	297
297	1	297	298
298	1	298	299
299	1	299	300
300	1	300	1

Angles

1	1	1	2	3
2	1	2	3	4
3	1	3	4	5
4	1	4	5	6
5	1	5	6	7
6	1	6	7	8
7	1	7	8	9
8	1	8	9	10
9	1	9	10	11
10	1	10	11	12
11	1	11	12	13
12	1	12	13	14
13	1	13	14	15
14	1	14	15	16
15	1	15	16	17
16	1	16	17	18
17	1	17	18	19
18	1	18	19	20
19	1	19	20	21
20	1	20	21	22
21	1	21	22	23
22	1	22	23	24
23	1	23	24	25
24	1	24	25	26
25	1	25	26	27
26	1	26	27	28
27	1	27	28	29
28	1	28	29	30
29	1	29	30	31
30	1	30	31	32
31	1	31	32	33
32	1	32	33	34
33	1	33	34	35
34	1	34	35	36
35	1	35	36	37
36	1	36	37	38
37	1	37	38	39
38	1	38	39	40
39	1	39	40	41
40	1	40	41	42
41	1	41	42	43
42	1	42	43	44
43	1	43	44	45
44	1	44	45	46
45	1	45	46	47
46	1	46	47	48
47	1	47	48	49
48	1	48	49	50
49	1	49	50	51
50	1	50	51	52
51	1	51	52	53
52	1	52	53	54
53	1	53	54	55
54	1	54	55	56
55	1	55	56	57
56	1	56	57	58
57	1	57	58	59
58	1	58	59	60
59	1	59	60	61
60	1	60	61	62
61	1	61	62	63
62	1	62	63	64
63	1	63	64	65
64	1	64	65	66
65	1	65	66	67
66	1	66	67	68
67	1	67	68	69
68	1	68	69	70
69	1	69	70	71
70	1	70	71	72
71	1	71	72	73
72	1	72	73	74
73	1	73	74	75
74	1	74	75	76
75	1	75	76	77
76	1	76	77	78
77	1	77	78	79
78	1	78	79	80
79	1	79	80	81
80	1	80	81	82
81	1	81	82	83
82	1	82	83	84
83	1	83	84	85
84	1	84	85	86
85	1	85	86	87
86	1	86	87	88
87	1	87	88	89
88	1	88	89	90
89	1	89	90	91
90	1	90	91	92
91	1	91	92	93
92	1	92	93	94
93	1	93	94	95
94	1	94	95	96
95	1	95	96	97
96	1	96	97	98
97	1	97	98	99
98	1	98	99	100
99	1	99	100	101
100	1	100	101	102
101	1	101	102	103
102	1	102	103	104
103	1	103	104	105
104	1	104	105	106
105	1	105	106	107
106	1	106	107	108
107	1	107	108	109
108	1	108	109	110
109	1	109	110	111
110	1	110	111	112
111	1	111	112	113
112	1	112	113	114
113	1	113	114	115
114	1	114	115	116
115	1	115	116	117
116	1	116	117	118
117	1	117	118	119
118	1	118	119	120
119	1	119	120	121
120	1	120	121	122
121	1	121	122	123
122	1	122	123	124
123	1	123	124	125
124	1	124	125	126
125	1	125	126	127
126	1	126	127	128
127	1	127	128	129
128	1	128	129	130
129	1	129	130	131
130	1	130	131	132
131	1	131	132	133
132	1	132	133	134
133	1	133	134	135
134	1	134	135	136
135	1	135	136	137
136	1	136	137	138
137	1	137	138	139
138	1	138	139	140
139	1	139	140	141
140	1	140	141	142
141	1	141	142	143
142	1	142	143	144
143	1	143	144	145
144	1	144	145	146
145	1	145	146	147
146	1	146	147	148
147	1	147	148	149
148	1	148	149	150
149	1	149	150	151
150	1	150	151	152
151	1	151	152	153
152	1	152	153	154
153	1	153	154	155
154	1	154	155	156
155	1	155	156	157
156	1	156	157	158
157	1	157	158	159
158	1	158	159	160
159	1	159	160	161
160	1	160	161	162
161	1	161	162	163
162	1	162	163	164
163	1	163	164	165
164	1	164	165	166
165	1	165	166	167
166	1	166	167	168
167	1	167	168	169
168	1	168	169	170
169	1	169	170	171
170	1	170	171	172
171	1	171	172	173
172	1	172	173	174
173	1	173	174	175
174	1	174	175	176
175	1	175	176	177
176	1	176	177	178
177	1	177	178	179
178	1	178	179	180
179	1	179	180	181
180	1	180	181	182
181	1	181	182	183
182	1	182	183	184
183	1	183	184	185
184	1	184	185	186
185	1	185	186	187
186	1	186	187	188
187	1	187	188	189
188	1	188	189	190
189	1	189	190	191
190	1	190	191	192
191	1	191	192	193
192	1	192	193	194
193	1	193	194	195
194	1	194	195	196
195	1	195	196	197
196	1	196	197	198
197	1	197	198	199
198	1	198	199	200
199	1	199	200	201
200	1	200	201	202
201	1	201	202	203
202	1	202	203	204
203	1	203	204	205
204	1	204	205	206
205	1	205	206	207
206	1	206	207	208
207	1	207	208	209
208	1	208	209	210
209	1	209	210	211
210	1	210	211	212
211	1	211	212	213
212	1	212	213	214
213	1	213	214	215
214	1	214	215	216
215	1	215	216	217
216	1	216	217	218
217	1	217	218	219
218	1	218	219	220
219	1	219	220	221
220	1	220	221	222
221	1	221	222	223
222	1	222	223	224
223	1	223	224	225
224	1	224	225	226
225	1	225	226	227
226	1	226	227	228
227	1	227	228	229
228	1	228	229	230
229	1	229	230	231
230	1	230	231	232
231	1	231	232	233
232	1	232	233	234
233	1	233	234	235
234	1	234	235	236
235	1	235	236	237
236	1	236	237	238
237	1	237	238	239
238	1	238	239	240
239	1	239	240	241
240	1	240	241	242
241	1	241	242	243
242	1	242	243	244
243	1	243	244	245
244	1	244	245	246
245	1	245	246	247
246	1	246	247	248
247	1	247	248	249
248	1	248	249	250
249	1	249	250	251
250	1	250	251	252
251	1	251	252	253
252	1	252	253	254
253	1	253	254	255
254	1	254	255	256
255	1	255	256	257
256	1	256	257	258
257	1	257	258	259
258	1	258	259	260
259	1	259	260	261
260	1	260	261	262
261	1	261	262	263
262	1	262	263	264
263	1	263	264	265
264	1	264	265	266
265	1	265	266	267
266	1	266	267	268
267	1	267	268	269
268	1	268	269	270
269	1	269	270	271
270	1	270	271	272
271	1	271	272	273
272	1	272	273	274
273	1	273	274	275
274	1	274	275	276
275	1	275	276	277
276	1	276	277	278
277	1	277	278	279
278	1	278	279	280
279	1	279	280	281
280	1	280	281	282
281	1	281	282	283
282	1	282	283	284
283	1	283	284	285
284	1	284	285	286
285	1	285	286	287
286	1	286	287	288
287	1	287	288	289
288	1	288	289	290
289	1	289	290	291
290	1	290	291	292
291	1	291	292	293
292	1	292	293	294
293	1	293	294	295
294	1	294	295	296
295	1	295	296	297
296	1	296	297	298
297	1	297	298	299
298	1	298	299	300
299	1	299	300	1
300	1	300	1	2
